M 0.00000 1 (390.00, 385.00, 0.00), (25.00, 20.00), 15.00
s 0.475592155 _4_ RTR  --- 0 message 32 [0 0 0 0] ------- [4:255 -1:255 32 0] 
s 0.626351489 _2_ RTR  --- 1 message 32 [0 0 0 0] ------- [2:255 -1:255 32 0] 
r 0.627532165 _0_ RTR  --- 1 message 32 [0 ffffffff 2 800] ------- [2:255 -1:255 32 0] 
r 0.627532176 _3_ RTR  --- 1 message 32 [0 ffffffff 2 800] ------- [2:255 -1:255 32 0] 
s 0.886583331 _0_ RTR  --- 2 message 32 [0 0 0 0] ------- [0:255 -1:255 32 0] 
r 0.887744007 _2_ RTR  --- 2 message 32 [0 ffffffff 0 800] ------- [0:255 -1:255 32 0] 
s 1.601798317 _1_ RTR  --- 3 message 32 [0 0 0 0] ------- [1:255 -1:255 32 0] 
s 1.637613262 _3_ RTR  --- 4 message 32 [0 0 0 0] ------- [3:255 -1:255 32 0] 
r 1.639013949 _2_ RTR  --- 4 message 32 [0 ffffffff 3 800] ------- [3:255 -1:255 32 0] 
s 10.000000000 _0_ AGT  --- 5 tcp 40 [0 0 0 0] ------- [0:0 1:0 32 0] [0 0] 0 0
r 10.000000000 _0_ RTR  --- 5 tcp 40 [0 0 0 0] ------- [0:0 1:0 32 0] [0 0] 0 0
s 10.000000000 _2_ AGT  --- 6 tcp 40 [0 0 0 0] ------- [2:0 1:0 32 0] [0 0] 0 0
r 10.000000000 _2_ RTR  --- 6 tcp 40 [0 0 0 0] ------- [2:0 1:0 32 0] [0 0] 0 0
s 10.000000000 _3_ AGT  --- 7 tcp 40 [0 0 0 0] ------- [3:0 1:0 32 0] [0 0] 0 0
r 10.000000000 _3_ RTR  --- 7 tcp 40 [0 0 0 0] ------- [3:0 1:0 32 0] [0 0] 0 0
s 10.000000000 _4_ AGT  --- 8 tcp 40 [0 0 0 0] ------- [4:0 1:0 32 0] [0 0] 0 0
r 10.000000000 _4_ RTR  --- 8 tcp 40 [0 0 0 0] ------- [4:0 1:0 32 0] [0 0] 0 0
s 12.629703759 _0_ RTR  --- 9 message 32 [0 0 0 0] ------- [0:255 -1:255 32 0] 
s 12.629944432 _3_ RTR  --- 10 message 32 [0 0 0 0] ------- [3:255 -1:255 32 0] 
r 12.630564435 _2_ RTR  --- 9 message 32 [0 ffffffff 0 800] ------- [0:255 -1:255 32 0] 
r 12.631999697 _2_ RTR  --- 10 message 32 [0 ffffffff 3 800] ------- [3:255 -1:255 32 0] 
s 12.791921657 _0_ RTR  --- 11 message 44 [0 0 0 0] ------- [0:255 -1:255 32 0] 
r 12.793038333 _2_ RTR  --- 11 message 44 [0 ffffffff 0 800] ------- [0:255 -1:255 32 0] 
s 12.887124406 _4_ RTR  --- 12 message 32 [0 0 0 0] ------- [4:255 -1:255 32 0] 
s 13.000000000 _0_ AGT  --- 14 tcp 40 [0 0 0 0] ------- [0:0 1:0 32 0] [0 0] 0 0
r 13.000000000 _0_ RTR  --- 14 tcp 40 [0 0 0 0] ------- [0:0 1:0 32 0] [0 0] 0 0
s 13.000000000 _2_ AGT  --- 15 tcp 40 [0 0 0 0] ------- [2:0 1:0 32 0] [0 0] 0 0
r 13.000000000 _2_ RTR  --- 15 tcp 40 [0 0 0 0] ------- [2:0 1:0 32 0] [0 0] 0 0
s 13.000000000 _3_ AGT  --- 16 tcp 40 [0 0 0 0] ------- [3:0 1:0 32 0] [0 0] 0 0
r 13.000000000 _3_ RTR  --- 16 tcp 40 [0 0 0 0] ------- [3:0 1:0 32 0] [0 0] 0 0
s 13.000000000 _4_ AGT  --- 17 tcp 40 [0 0 0 0] ------- [4:0 1:0 32 0] [0 0] 0 0
r 13.000000000 _4_ RTR  --- 17 tcp 40 [0 0 0 0] ------- [4:0 1:0 32 0] [0 0] 0 0
s 13.639597976 _2_ RTR  --- 18 message 32 [0 0 0 0] ------- [2:255 -1:255 32 0] 
r 13.640538525 _1_ RTR  --- 18 message 32 [0 ffffffff 2 800] ------- [2:255 -1:255 32 0] 
r 13.640538652 _0_ RTR  --- 18 message 32 [0 ffffffff 2 800] ------- [2:255 -1:255 32 0] 
r 13.640538663 _3_ RTR  --- 18 message 32 [0 ffffffff 2 800] ------- [2:255 -1:255 32 0] 
s 13.819497343 _1_ RTR  --- 19 message 32 [0 0 0 0] ------- [1:255 -1:255 32 0] 
r 13.820497884 _2_ RTR  --- 19 message 32 [0 ffffffff 1 800] ------- [1:255 -1:255 32 0] 
s 13.820497884 _2_ RTR  --- 6 tcp 80 [0 0 0 0] ------- [2:0 1:0 32 1] [0 0] 0 0
s 13.820497884 _2_ RTR  --- 15 tcp 80 [0 0 0 0] ------- [2:0 1:0 32 1] [0 0] 0 0
D 13.820497884 _2_ IFQ  ARP 6 tcp 80 [0 0 2 800] ------- [2:0 1:0 32 1] [0 0] 0 0
r 13.826365674 _1_ AGT  --- 15 tcp 80 [13a 1 2 800] ------- [2:0 1:0 32 1] [0 0] 1 0
s 13.826365674 _1_ AGT  --- 20 ack 40 [0 0 0 0] ------- [1:0 4:0 32 0] [0 0] 0 0
r 13.826365674 _1_ RTR  --- 20 ack 40 [0 0 0 0] ------- [1:0 4:0 32 0] [0 0] 0 0
s 14.279450435 _2_ RTR  --- 21 message 56 [0 0 0 0] ------- [2:255 -1:255 32 0] 
r 14.280702956 _1_ RTR  --- 21 message 56 [0 ffffffff 2 800] ------- [2:255 -1:255 32 0] 
r 14.280703111 _0_ RTR  --- 21 message 56 [0 ffffffff 2 800] ------- [2:255 -1:255 32 0] 
s 14.280703111 _0_ RTR  --- 5 tcp 80 [0 0 0 0] ------- [0:0 1:0 32 2] [0 0] 0 0
s 14.280703111 _0_ RTR  --- 14 tcp 80 [0 0 0 0] ------- [0:0 1:0 32 2] [0 0] 0 0
r 14.280703122 _3_ RTR  --- 21 message 56 [0 ffffffff 2 800] ------- [2:255 -1:255 32 0] 
s 14.280703122 _3_ RTR  --- 7 tcp 80 [0 0 0 0] ------- [3:0 1:0 32 2] [0 0] 0 0
s 14.280703122 _3_ RTR  --- 16 tcp 80 [0 0 0 0] ------- [3:0 1:0 32 2] [0 0] 0 0
r 14.282605184 _2_ RTR  --- 7 tcp 80 [13a 2 3 800] ------- [3:0 1:0 32 2] [0 0] 1 0
f 14.282605184 _2_ RTR  --- 7 tcp 80 [13a 2 3 800] ------- [3:0 1:0 31 1] [0 0] 1 0
r 14.284990746 _1_ AGT  --- 7 tcp 80 [13a 1 2 800] ------- [3:0 1:0 31 1] [0 0] 2 0
s 14.284990746 _1_ AGT  --- 22 ack 40 [0 0 0 0] ------- [1:0 4:0 32 0] [0 0] 0 0
r 14.284990746 _1_ RTR  --- 22 ack 40 [0 0 0 0] ------- [1:0 4:0 32 0] [0 0] 0 0
r 14.287581870 _2_ RTR  --- 5 tcp 80 [13a 2 0 800] ------- [0:0 1:0 32 2] [0 0] 1 0
f 14.287581870 _2_ RTR  --- 5 tcp 80 [13a 2 0 800] ------- [0:0 1:0 31 1] [0 0] 1 0
r 14.289847431 _1_ AGT  --- 5 tcp 80 [13a 1 2 800] ------- [0:0 1:0 31 1] [0 0] 2 0
s 14.289847431 _1_ AGT  --- 23 ack 40 [0 0 0 0] ------- [1:0 4:0 32 0] [0 0] 0 0
r 14.289847431 _1_ RTR  --- 23 ack 40 [0 0 0 0] ------- [1:0 4:0 32 0] [0 0] 0 0
r 14.292478388 _2_ RTR  --- 16 tcp 80 [13a 2 3 800] ------- [3:0 1:0 32 2] [0 0] 1 0
f 14.292478388 _2_ RTR  --- 16 tcp 80 [13a 2 3 800] ------- [3:0 1:0 31 1] [0 0] 1 0
r 14.294734979 _2_ RTR  --- 14 tcp 80 [13a 2 0 800] ------- [0:0 1:0 32 2] [0 0] 1 0
f 14.294734979 _2_ RTR  --- 14 tcp 80 [13a 2 0 800] ------- [0:0 1:0 31 1] [0 0] 1 0
r 14.297240539 _1_ AGT  --- 16 tcp 80 [13a 1 2 800] ------- [3:0 1:0 31 1] [0 0] 2 0
s 14.297240539 _1_ AGT  --- 24 ack 40 [0 0 0 0] ------- [1:0 4:0 32 0] [0 0] 0 0
r 14.297240539 _1_ RTR  --- 24 ack 40 [0 0 0 0] ------- [1:0 4:0 32 0] [0 0] 0 0
r 14.299486620 _1_ AGT  --- 14 tcp 80 [13a 1 2 800] ------- [0:0 1:0 31 1] [0 0] 2 0
s 14.299486620 _1_ AGT  --- 25 ack 40 [0 0 0 0] ------- [1:0 4:0 32 0] [0 0] 0 0
r 14.299486620 _1_ RTR  --- 25 ack 40 [0 0 0 0] ------- [1:0 4:0 32 0] [0 0] 0 0
s 15.479984726 _3_ RTR  --- 26 message 44 [0 0 0 0] ------- [3:255 -1:255 32 0] 
r 15.480961413 _2_ RTR  --- 26 message 44 [0 ffffffff 3 800] ------- [3:255 -1:255 32 0] 
s 19.000000000 _0_ AGT  --- 27 tcp 40 [0 0 0 0] ------- [0:0 1:0 32 0] [0 0] 0 0
r 19.000000000 _0_ RTR  --- 27 tcp 40 [0 0 0 0] ------- [0:0 1:0 32 0] [0 0] 0 0
s 19.000000000 _0_ RTR  --- 27 tcp 60 [0 0 0 0] ------- [0:0 1:0 32 2] [0 0] 0 0
s 19.000000000 _2_ AGT  --- 28 tcp 40 [0 0 0 0] ------- [2:0 1:0 32 0] [0 0] 0 0
r 19.000000000 _2_ RTR  --- 28 tcp 40 [0 0 0 0] ------- [2:0 1:0 32 0] [0 0] 0 0
s 19.000000000 _2_ RTR  --- 28 tcp 60 [0 0 0 0] ------- [2:0 1:0 32 1] [0 0] 0 0
s 19.000000000 _3_ AGT  --- 29 tcp 40 [0 0 0 0] ------- [3:0 1:0 32 0] [0 0] 0 0
r 19.000000000 _3_ RTR  --- 29 tcp 40 [0 0 0 0] ------- [3:0 1:0 32 0] [0 0] 0 0
s 19.000000000 _3_ RTR  --- 29 tcp 60 [0 0 0 0] ------- [3:0 1:0 32 2] [0 0] 0 0
s 19.000000000 _4_ AGT  --- 30 tcp 40 [0 0 0 0] ------- [4:0 1:0 32 0] [0 0] 0 0
r 19.000000000 _4_ RTR  --- 30 tcp 40 [0 0 0 0] ------- [4:0 1:0 32 0] [0 0] 0 0
r 19.001782062 _2_ RTR  --- 29 tcp 60 [13a 2 3 800] ------- [3:0 1:0 32 2] [0 0] 1 0
f 19.001782062 _2_ RTR  --- 29 tcp 60 [13a 2 3 800] ------- [3:0 1:0 31 1] [0 0] 1 0
r 19.003827046 _1_ AGT  --- 28 tcp 60 [13a 1 2 800] ------- [2:0 1:0 32 1] [0 0] 1 0
s 19.003827046 _1_ AGT  --- 31 ack 40 [0 0 0 0] ------- [1:0 4:0 32 0] [0 0] 0 0
r 19.003827046 _1_ RTR  --- 31 ack 40 [0 0 0 0] ------- [1:0 4:0 32 0] [0 0] 0 0
D 19.003827046 _1_ RTR  IFQ 20 ack 60 [0 0 0 0] ------- [1:0 4:0 32 0] [0 0] 0 0
r 19.005932359 _1_ AGT  --- 29 tcp 60 [13a 1 2 800] ------- [3:0 1:0 31 1] [0 0] 2 0
s 19.005932359 _1_ AGT  --- 32 ack 40 [0 0 0 0] ------- [1:0 4:0 32 0] [0 0] 0 0
r 19.005932359 _1_ RTR  --- 32 ack 40 [0 0 0 0] ------- [1:0 4:0 32 0] [0 0] 0 0
D 19.005932359 _1_ RTR  IFQ 22 ack 60 [0 0 0 0] ------- [1:0 4:0 32 0] [0 0] 0 0
r 19.008823246 _2_ RTR  --- 27 tcp 60 [13a 2 0 800] ------- [0:0 1:0 32 2] [0 0] 1 0
f 19.008823246 _2_ RTR  --- 27 tcp 60 [13a 2 0 800] ------- [0:0 1:0 31 1] [0 0] 1 0
r 19.011248230 _1_ AGT  --- 27 tcp 60 [13a 1 2 800] ------- [0:0 1:0 31 1] [0 0] 2 0
s 19.011248230 _1_ AGT  --- 33 ack 40 [0 0 0 0] ------- [1:0 4:0 32 0] [0 0] 0 0
r 19.011248230 _1_ RTR  --- 33 ack 40 [0 0 0 0] ------- [1:0 4:0 32 0] [0 0] 0 0
D 19.011248230 _1_ RTR  IFQ 23 ack 60 [0 0 0 0] ------- [1:0 4:0 32 0] [0 0] 0 0
s 24.448860620 _0_ RTR  --- 34 message 44 [0 0 0 0] ------- [0:255 -1:255 32 0] 
r 24.450117208 _1_ RTR  --- 34 message 44 [0 ffffffff 0 800] ------- [0:255 -1:255 32 0] 
r 24.450117296 _2_ RTR  --- 34 message 44 [0 ffffffff 0 800] ------- [0:255 -1:255 32 0] 
s 25.527780570 _1_ RTR  --- 35 message 44 [0 0 0 0] ------- [1:255 -1:255 32 0] 
r 25.528876825 _2_ RTR  --- 35 message 44 [0 ffffffff 1 800] ------- [1:255 -1:255 32 0] 
r 25.528877104 _0_ RTR  --- 35 message 44 [0 ffffffff 1 800] ------- [1:255 -1:255 32 0] 
s 25.649658044 _0_ RTR  --- 36 message 44 [0 0 0 0] ------- [0:255 -1:255 32 0] 
r 25.650974571 _1_ RTR  --- 36 message 44 [0 ffffffff 0 800] ------- [0:255 -1:255 32 0] 
r 25.650974719 _2_ RTR  --- 36 message 44 [0 ffffffff 0 800] ------- [0:255 -1:255 32 0] 
s 26.227530605 _2_ RTR  --- 37 message 44 [0 0 0 0] ------- [2:255 -1:255 32 0] 
r 26.228446876 _1_ RTR  --- 37 message 44 [0 ffffffff 2 800] ------- [2:255 -1:255 32 0] 
r 26.228447281 _0_ RTR  --- 37 message 44 [0 ffffffff 2 800] ------- [2:255 -1:255 32 0] 
r 26.228447292 _3_ RTR  --- 37 message 44 [0 ffffffff 2 800] ------- [2:255 -1:255 32 0] 
s 27.685543502 _4_ RTR  --- 39 message 32 [0 0 0 0] ------- [4:255 -1:255 32 0] 
s 29.790655658 _3_ RTR  --- 40 message 44 [0 0 0 0] ------- [3:255 -1:255 32 0] 
r 29.791592346 _2_ RTR  --- 40 message 44 [0 ffffffff 3 800] ------- [3:255 -1:255 32 0] 
s 31.000000000 _0_ AGT  --- 41 tcp 40 [0 0 0 0] ------- [0:0 1:0 32 0] [0 0] 0 0
r 31.000000000 _0_ RTR  --- 41 tcp 40 [0 0 0 0] ------- [0:0 1:0 32 0] [0 0] 0 0
s 31.000000000 _0_ RTR  --- 41 tcp 60 [0 0 0 0] ------- [0:0 1:0 32 1] [0 0] 0 0
s 31.000000000 _2_ AGT  --- 42 tcp 40 [0 0 0 0] ------- [2:0 1:0 32 0] [0 0] 0 0
r 31.000000000 _2_ RTR  --- 42 tcp 40 [0 0 0 0] ------- [2:0 1:0 32 0] [0 0] 0 0
s 31.000000000 _2_ RTR  --- 42 tcp 60 [0 0 0 0] ------- [2:0 1:0 32 1] [0 0] 0 0
s 31.000000000 _3_ AGT  --- 43 tcp 40 [0 0 0 0] ------- [3:0 1:0 32 0] [0 0] 0 0
r 31.000000000 _3_ RTR  --- 43 tcp 40 [0 0 0 0] ------- [3:0 1:0 32 0] [0 0] 0 0
s 31.000000000 _3_ RTR  --- 43 tcp 60 [0 0 0 0] ------- [3:0 1:0 32 2] [0 0] 0 0
s 31.000000000 _4_ AGT  --- 44 tcp 40 [0 0 0 0] ------- [4:0 1:0 32 0] [0 0] 0 0
r 31.000000000 _4_ RTR  --- 44 tcp 40 [0 0 0 0] ------- [4:0 1:0 32 0] [0 0] 0 0
r 31.001721320 _1_ AGT  --- 42 tcp 60 [13a 1 2 800] ------- [2:0 1:0 32 1] [0 0] 1 0
s 31.001721320 _1_ AGT  --- 45 ack 40 [0 0 0 0] ------- [1:0 4:0 32 0] [0 0] 0 0
r 31.001721320 _1_ RTR  --- 45 ack 40 [0 0 0 0] ------- [1:0 4:0 32 0] [0 0] 0 0
D 31.001721320 _1_ RTR  IFQ 24 ack 60 [0 0 0 0] ------- [1:0 4:0 32 0] [0 0] 0 0
r 31.008065466 _1_ AGT  --- 41 tcp 60 [13a 1 0 800] ------- [0:0 1:0 32 1] [0 0] 1 0
s 31.008065466 _1_ AGT  --- 46 ack 40 [0 0 0 0] ------- [1:0 4:0 32 0] [0 0] 0 0
r 31.008065466 _1_ RTR  --- 46 ack 40 [0 0 0 0] ------- [1:0 4:0 32 0] [0 0] 0 0
D 31.008065466 _1_ RTR  IFQ 25 ack 60 [0 0 0 0] ------- [1:0 4:0 32 0] [0 0] 0 0
r 31.010496604 _2_ RTR  --- 43 tcp 60 [13a 2 3 800] ------- [3:0 1:0 32 2] [0 0] 1 0
f 31.010496604 _2_ RTR  --- 43 tcp 60 [13a 2 3 800] ------- [3:0 1:0 31 1] [0 0] 1 0
r 31.012501926 _1_ AGT  --- 43 tcp 60 [13a 1 2 800] ------- [3:0 1:0 31 1] [0 0] 2 0
s 31.012501926 _1_ AGT  --- 47 ack 40 [0 0 0 0] ------- [1:0 4:0 32 0] [0 0] 0 0
r 31.012501926 _1_ RTR  --- 47 ack 40 [0 0 0 0] ------- [1:0 4:0 32 0] [0 0] 0 0
D 31.012501926 _1_ RTR  IFQ 31 ack 60 [0 0 0 0] ------- [1:0 4:0 32 0] [0 0] 0 0
s 36.459085216 _1_ RTR  --- 48 message 44 [0 0 0 0] ------- [1:255 -1:255 32 0] 
r 36.460481306 _0_ RTR  --- 48 message 44 [0 ffffffff 1 800] ------- [1:255 -1:255 32 0] 
r 36.460481808 _2_ RTR  --- 48 message 44 [0 ffffffff 1 800] ------- [1:255 -1:255 32 0] 
s 37.092226051 _1_ RTR  --- 49 message 68 [0 0 0 0] ------- [1:255 -1:255 32 0] 
r 37.093514141 _0_ RTR  --- 49 message 68 [0 ffffffff 1 800] ------- [1:255 -1:255 32 0] 
r 37.093514642 _2_ RTR  --- 49 message 68 [0 ffffffff 1 800] ------- [1:255 -1:255 32 0] 
s 37.229989877 _0_ RTR  --- 50 message 56 [0 0 0 0] ------- [0:255 -1:255 32 0] 
r 37.231101967 _1_ RTR  --- 50 message 56 [0 ffffffff 0 800] ------- [0:255 -1:255 32 0] 
r 37.231102553 _2_ RTR  --- 50 message 56 [0 ffffffff 0 800] ------- [0:255 -1:255 32 0] 
s 37.489312529 _2_ RTR  --- 51 message 32 [0 0 0 0] ------- [2:255 -1:255 32 0] 
r 37.490713121 _1_ RTR  --- 51 message 32 [0 ffffffff 2 800] ------- [2:255 -1:255 32 0] 
r 37.490713205 _0_ RTR  --- 51 message 32 [0 ffffffff 2 800] ------- [2:255 -1:255 32 0] 
r 37.490713217 _3_ RTR  --- 51 message 32 [0 ffffffff 2 800] ------- [2:255 -1:255 32 0] 
s 41.956553312 _4_ RTR  --- 52 message 32 [0 0 0 0] ------- [4:255 -1:255 32 0] 
s 43.345109074 _3_ RTR  --- 53 message 44 [0 0 0 0] ------- [3:255 -1:255 32 0] 
r 43.346205761 _2_ RTR  --- 53 message 44 [0 ffffffff 3 800] ------- [3:255 -1:255 32 0] 
s 48.628991898 _0_ RTR  --- 54 message 68 [0 0 0 0] ------- [0:255 -1:255 32 0] 
r 48.630339988 _1_ RTR  --- 54 message 68 [0 ffffffff 0 800] ------- [0:255 -1:255 32 0] 
r 48.630340574 _2_ RTR  --- 54 message 68 [0 ffffffff 0 800] ------- [0:255 -1:255 32 0] 
s 49.229320753 _1_ RTR  --- 55 message 56 [0 0 0 0] ------- [1:255 -1:255 32 0] 
r 49.230492842 _0_ RTR  --- 55 message 56 [0 ffffffff 1 800] ------- [1:255 -1:255 32 0] 
r 49.230493344 _2_ RTR  --- 55 message 56 [0 ffffffff 1 800] ------- [1:255 -1:255 32 0] 
s 51.855629415 _2_ RTR  --- 56 message 44 [0 0 0 0] ------- [2:255 -1:255 32 0] 
r 51.857086006 _1_ RTR  --- 56 message 44 [0 ffffffff 2 800] ------- [2:255 -1:255 32 0] 
r 51.857086091 _0_ RTR  --- 56 message 44 [0 ffffffff 2 800] ------- [2:255 -1:255 32 0] 
r 51.857086102 _3_ RTR  --- 56 message 44 [0 ffffffff 2 800] ------- [2:255 -1:255 32 0] 
s 55.000000000 _0_ AGT  --- 57 tcp 40 [0 0 0 0] ------- [0:0 1:0 32 0] [0 0] 0 0
r 55.000000000 _0_ RTR  --- 57 tcp 40 [0 0 0 0] ------- [0:0 1:0 32 0] [0 0] 0 0
s 55.000000000 _0_ RTR  --- 57 tcp 60 [0 0 0 0] ------- [0:0 1:0 32 1] [0 0] 0 0
s 55.000000000 _2_ AGT  --- 58 tcp 40 [0 0 0 0] ------- [2:0 1:0 32 0] [0 0] 0 0
r 55.000000000 _2_ RTR  --- 58 tcp 40 [0 0 0 0] ------- [2:0 1:0 32 0] [0 0] 0 0
s 55.000000000 _2_ RTR  --- 58 tcp 60 [0 0 0 0] ------- [2:0 1:0 32 1] [0 0] 0 0
s 55.000000000 _3_ AGT  --- 59 tcp 40 [0 0 0 0] ------- [3:0 1:0 32 0] [0 0] 0 0
r 55.000000000 _3_ RTR  --- 59 tcp 40 [0 0 0 0] ------- [3:0 1:0 32 0] [0 0] 0 0
s 55.000000000 _3_ RTR  --- 59 tcp 60 [0 0 0 0] ------- [3:0 1:0 32 2] [0 0] 0 0
s 55.000000000 _4_ AGT  --- 60 tcp 40 [0 0 0 0] ------- [4:0 1:0 32 0] [0 0] 0 0
r 55.000000000 _4_ RTR  --- 60 tcp 40 [0 0 0 0] ------- [4:0 1:0 32 0] [0 0] 0 0
r 55.001760269 _1_ AGT  --- 57 tcp 60 [13a 1 0 800] ------- [0:0 1:0 32 1] [0 0] 1 0
s 55.001760269 _1_ AGT  --- 61 ack 40 [0 0 0 0] ------- [1:0 4:0 32 0] [0 0] 0 0
r 55.001760269 _1_ RTR  --- 61 ack 40 [0 0 0 0] ------- [1:0 4:0 32 0] [0 0] 0 0
D 55.001760269 _1_ RTR  IFQ 32 ack 60 [0 0 0 0] ------- [1:0 4:0 32 0] [0 0] 0 0
r 55.004186634 _1_ AGT  --- 58 tcp 60 [13a 1 2 800] ------- [2:0 1:0 32 1] [0 0] 1 0
s 55.004186634 _1_ AGT  --- 62 ack 40 [0 0 0 0] ------- [1:0 4:0 32 0] [0 0] 0 0
r 55.004186634 _1_ RTR  --- 62 ack 40 [0 0 0 0] ------- [1:0 4:0 32 0] [0 0] 0 0
D 55.004186634 _1_ RTR  IFQ 33 ack 60 [0 0 0 0] ------- [1:0 4:0 32 0] [0 0] 0 0
r 55.006797880 _2_ RTR  --- 59 tcp 60 [13a 2 3 800] ------- [3:0 1:0 32 2] [0 0] 1 0
f 55.006797880 _2_ RTR  --- 59 tcp 60 [13a 2 3 800] ------- [3:0 1:0 31 1] [0 0] 1 0
r 55.009343653 _1_ AGT  --- 59 tcp 60 [13a 1 2 800] ------- [3:0 1:0 31 1] [0 0] 2 0
s 55.009343653 _1_ AGT  --- 63 ack 40 [0 0 0 0] ------- [1:0 4:0 32 0] [0 0] 0 0
r 55.009343653 _1_ RTR  --- 63 ack 40 [0 0 0 0] ------- [1:0 4:0 32 0] [0 0] 0 0
D 55.009343653 _1_ RTR  IFQ 45 ack 60 [0 0 0 0] ------- [1:0 4:0 32 0] [0 0] 0 0
s 55.593778085 _4_ RTR  --- 64 message 32 [0 0 0 0] ------- [4:255 -1:255 32 0] 
s 58.117050860 _3_ RTR  --- 65 message 44 [0 0 0 0] ------- [3:255 -1:255 32 0] 
r 58.118567548 _2_ RTR  --- 65 message 44 [0 ffffffff 3 800] ------- [3:255 -1:255 32 0] 
s 62.482684862 _1_ RTR  --- 66 message 68 [0 0 0 0] ------- [1:255 -1:255 32 0] 
r 62.484172952 _0_ RTR  --- 66 message 68 [0 ffffffff 1 800] ------- [1:255 -1:255 32 0] 
r 62.484173454 _2_ RTR  --- 66 message 68 [0 ffffffff 1 800] ------- [1:255 -1:255 32 0] 
s 63.266369882 _0_ RTR  --- 67 message 56 [0 0 0 0] ------- [0:255 -1:255 32 0] 
r 63.267501971 _1_ RTR  --- 67 message 56 [0 ffffffff 0 800] ------- [0:255 -1:255 32 0] 
r 63.267502557 _2_ RTR  --- 67 message 56 [0 ffffffff 0 800] ------- [0:255 -1:255 32 0] 
s 66.408426154 _2_ RTR  --- 68 message 44 [0 0 0 0] ------- [2:255 -1:255 32 0] 
r 66.409422745 _1_ RTR  --- 68 message 44 [0 ffffffff 2 800] ------- [2:255 -1:255 32 0] 
r 66.409422830 _0_ RTR  --- 68 message 44 [0 ffffffff 2 800] ------- [2:255 -1:255 32 0] 
r 66.409422841 _3_ RTR  --- 68 message 44 [0 ffffffff 2 800] ------- [2:255 -1:255 32 0] 
s 69.296865503 _4_ RTR  --- 69 message 32 [0 0 0 0] ------- [4:255 -1:255 32 0] 
s 70.096836157 _3_ RTR  --- 70 message 44 [0 0 0 0] ------- [3:255 -1:255 32 0] 
r 70.098272845 _2_ RTR  --- 70 message 44 [0 ffffffff 3 800] ------- [3:255 -1:255 32 0] 
s 73.934436726 _1_ RTR  --- 71 message 56 [0 0 0 0] ------- [1:255 -1:255 32 0] 
r 73.935508816 _0_ RTR  --- 71 message 56 [0 ffffffff 1 800] ------- [1:255 -1:255 32 0] 
r 73.935509317 _2_ RTR  --- 71 message 56 [0 ffffffff 1 800] ------- [1:255 -1:255 32 0] 
s 78.094339315 _0_ RTR  --- 72 message 56 [0 0 0 0] ------- [0:255 -1:255 32 0] 
r 78.095391404 _1_ RTR  --- 72 message 56 [0 ffffffff 0 800] ------- [0:255 -1:255 32 0] 
r 78.095391990 _2_ RTR  --- 72 message 56 [0 ffffffff 0 800] ------- [0:255 -1:255 32 0] 
s 80.771111610 _2_ RTR  --- 73 message 56 [0 0 0 0] ------- [2:255 -1:255 32 0] 
r 80.772284201 _1_ RTR  --- 73 message 56 [0 ffffffff 2 800] ------- [2:255 -1:255 32 0] 
r 80.772284286 _0_ RTR  --- 73 message 56 [0 ffffffff 2 800] ------- [2:255 -1:255 32 0] 
r 80.772284298 _3_ RTR  --- 73 message 56 [0 ffffffff 2 800] ------- [2:255 -1:255 32 0] 
s 82.728337013 _4_ RTR  --- 74 message 32 [0 0 0 0] ------- [4:255 -1:255 32 0] 
s 84.557457311 _3_ RTR  --- 75 message 32 [0 0 0 0] ------- [3:255 -1:255 32 0] 
r 84.558277998 _2_ RTR  --- 75 message 32 [0 ffffffff 3 800] ------- [3:255 -1:255 32 0] 
s 85.980714456 _1_ RTR  --- 76 message 44 [0 0 0 0] ------- [1:255 -1:255 32 0] 
r 85.982030545 _0_ RTR  --- 76 message 44 [0 ffffffff 1 800] ------- [1:255 -1:255 32 0] 
r 85.982031047 _2_ RTR  --- 76 message 44 [0 ffffffff 1 800] ------- [1:255 -1:255 32 0] 
s 90.357095148 _0_ RTR  --- 77 message 56 [0 0 0 0] ------- [0:255 -1:255 32 0] 
r 90.358487238 _1_ RTR  --- 77 message 56 [0 ffffffff 0 800] ------- [0:255 -1:255 32 0] 
r 90.358487824 _2_ RTR  --- 77 message 56 [0 ffffffff 0 800] ------- [0:255 -1:255 32 0] 
s 93.851178947 _2_ RTR  --- 78 message 56 [0 0 0 0] ------- [2:255 -1:255 32 0] 
r 93.852351538 _1_ RTR  --- 78 message 56 [0 ffffffff 2 800] ------- [2:255 -1:255 32 0] 
r 93.852351623 _0_ RTR  --- 78 message 56 [0 ffffffff 2 800] ------- [2:255 -1:255 32 0] 
r 93.852351634 _3_ RTR  --- 78 message 56 [0 ffffffff 2 800] ------- [2:255 -1:255 32 0] 
s 94.961837023 _4_ RTR  --- 79 message 32 [0 0 0 0] ------- [4:255 -1:255 32 0] 
s 97.598083284 _3_ RTR  --- 80 message 32 [0 0 0 0] ------- [3:255 -1:255 32 0] 
r 97.599123971 _2_ RTR  --- 80 message 32 [0 ffffffff 3 800] ------- [3:255 -1:255 32 0] 
s 99.124812120 _1_ RTR  --- 81 message 56 [0 0 0 0] ------- [1:255 -1:255 32 0] 
r 99.126384209 _0_ RTR  --- 81 message 56 [0 ffffffff 1 800] ------- [1:255 -1:255 32 0] 
r 99.126384711 _2_ RTR  --- 81 message 56 [0 ffffffff 1 800] ------- [1:255 -1:255 32 0] 
M 100.00000 1 (25.00, 20.00, 0.00), (490.00, 480.00), 15.00
s 102.941219061 _0_ RTR  --- 82 message 56 [0 0 0 0] ------- [0:255 -1:255 32 0] 
r 102.942511297 _1_ RTR  --- 82 message 56 [0 ffffffff 0 800] ------- [0:255 -1:255 32 0] 
r 102.942511736 _2_ RTR  --- 82 message 56 [0 ffffffff 0 800] ------- [0:255 -1:255 32 0] 
s 103.000000000 _0_ AGT  --- 83 tcp 40 [0 0 0 0] ------- [0:0 1:0 32 0] [0 0] 0 0
r 103.000000000 _0_ RTR  --- 83 tcp 40 [0 0 0 0] ------- [0:0 1:0 32 0] [0 0] 0 0
s 103.000000000 _0_ RTR  --- 83 tcp 60 [0 0 0 0] ------- [0:0 1:0 32 1] [0 0] 0 0
s 103.000000000 _2_ AGT  --- 84 tcp 40 [0 0 0 0] ------- [2:0 1:0 32 0] [0 0] 0 0
r 103.000000000 _2_ RTR  --- 84 tcp 40 [0 0 0 0] ------- [2:0 1:0 32 0] [0 0] 0 0
s 103.000000000 _2_ RTR  --- 84 tcp 60 [0 0 0 0] ------- [2:0 1:0 32 1] [0 0] 0 0
s 103.000000000 _3_ AGT  --- 85 tcp 40 [0 0 0 0] ------- [3:0 1:0 32 0] [0 0] 0 0
r 103.000000000 _3_ RTR  --- 85 tcp 40 [0 0 0 0] ------- [3:0 1:0 32 0] [0 0] 0 0
s 103.000000000 _3_ RTR  --- 85 tcp 60 [0 0 0 0] ------- [3:0 1:0 32 2] [0 0] 0 0
s 103.000000000 _4_ AGT  --- 86 tcp 40 [0 0 0 0] ------- [4:0 1:0 32 0] [0 0] 0 0
r 103.000000000 _4_ RTR  --- 86 tcp 40 [0 0 0 0] ------- [4:0 1:0 32 0] [0 0] 0 0
D 103.000000000 _4_ RTR  IFQ 8 tcp 60 [0 0 0 0] ------- [4:0 1:0 32 0] [0 0] 0 0
r 103.002140719 _1_ AGT  --- 83 tcp 60 [13a 1 0 800] ------- [0:0 1:0 32 1] [0 0] 1 0
s 103.002140719 _1_ AGT  --- 87 ack 40 [0 0 0 0] ------- [1:0 4:0 32 0] [0 0] 0 0
r 103.002140719 _1_ RTR  --- 87 ack 40 [0 0 0 0] ------- [1:0 4:0 32 0] [0 0] 0 0
D 103.002140719 _1_ RTR  IFQ 46 ack 60 [0 0 0 0] ------- [1:0 4:0 32 0] [0 0] 0 0
r 103.004266547 _1_ AGT  --- 84 tcp 60 [13a 1 2 800] ------- [2:0 1:0 32 1] [0 0] 1 0
s 103.004266547 _1_ AGT  --- 88 ack 40 [0 0 0 0] ------- [1:0 4:0 32 0] [0 0] 0 0
r 103.004266547 _1_ RTR  --- 88 ack 40 [0 0 0 0] ------- [1:0 4:0 32 0] [0 0] 0 0
D 103.004266547 _1_ RTR  IFQ 47 ack 60 [0 0 0 0] ------- [1:0 4:0 32 0] [0 0] 0 0
r 103.006637696 _2_ RTR  --- 85 tcp 60 [13a 2 3 800] ------- [3:0 1:0 32 2] [0 0] 1 0
f 103.006637696 _2_ RTR  --- 85 tcp 60 [13a 2 3 800] ------- [3:0 1:0 31 1] [0 0] 1 0
r 103.008703066 _1_ AGT  --- 85 tcp 60 [13a 1 2 800] ------- [3:0 1:0 31 1] [0 0] 2 0
s 103.008703066 _1_ AGT  --- 89 ack 40 [0 0 0 0] ------- [1:0 4:0 32 0] [0 0] 0 0
r 103.008703066 _1_ RTR  --- 89 ack 40 [0 0 0 0] ------- [1:0 4:0 32 0] [0 0] 0 0
D 103.008703066 _1_ RTR  IFQ 61 ack 60 [0 0 0 0] ------- [1:0 4:0 32 0] [0 0] 0 0
s 105.661106226 _2_ RTR  --- 90 message 56 [0 0 0 0] ------- [2:255 -1:255 32 0] 
r 105.662558575 _1_ RTR  --- 90 message 56 [0 ffffffff 2 800] ------- [2:255 -1:255 32 0] 
r 105.662558901 _0_ RTR  --- 90 message 56 [0 ffffffff 2 800] ------- [2:255 -1:255 32 0] 
r 105.662558913 _3_ RTR  --- 90 message 56 [0 ffffffff 2 800] ------- [2:255 -1:255 32 0] 
s 106.427148010 _4_ RTR  --- 91 message 32 [0 0 0 0] ------- [4:255 -1:255 32 0] 
s 110.256377779 _3_ RTR  --- 92 message 44 [0 0 0 0] ------- [3:255 -1:255 32 0] 
r 110.257414466 _2_ RTR  --- 92 message 44 [0 ffffffff 3 800] ------- [3:255 -1:255 32 0] 
s 112.412364886 _1_ RTR  --- 93 message 68 [0 0 0 0] ------- [1:255 -1:255 32 0] 
r 112.413813131 _2_ RTR  --- 93 message 68 [0 ffffffff 1 800] ------- [1:255 -1:255 32 0] 
r 112.413813596 _0_ RTR  --- 93 message 68 [0 ffffffff 1 800] ------- [1:255 -1:255 32 0] 
s 116.142733867 _0_ RTR  --- 94 message 68 [0 0 0 0] ------- [0:255 -1:255 32 0] 
r 116.143922542 _2_ RTR  --- 94 message 68 [0 ffffffff 0 800] ------- [0:255 -1:255 32 0] 
s 117.843921768 _2_ RTR  --- 95 message 56 [0 0 0 0] ------- [2:255 -1:255 32 0] 
r 117.845274187 _1_ RTR  --- 95 message 56 [0 ffffffff 2 800] ------- [2:255 -1:255 32 0] 
r 117.845274443 _0_ RTR  --- 95 message 56 [0 ffffffff 2 800] ------- [2:255 -1:255 32 0] 
r 117.845274455 _3_ RTR  --- 95 message 56 [0 ffffffff 2 800] ------- [2:255 -1:255 32 0] 
s 118.906702931 _4_ RTR  --- 96 message 32 [0 0 0 0] ------- [4:255 -1:255 32 0] 
s 124.405870550 _3_ RTR  --- 97 message 56 [0 0 0 0] ------- [3:255 -1:255 32 0] 
r 124.407403237 _2_ RTR  --- 97 message 56 [0 ffffffff 3 800] ------- [3:255 -1:255 32 0] 
s 125.335753196 _1_ RTR  --- 98 message 68 [0 0 0 0] ------- [1:255 -1:255 32 0] 
r 125.337221956 _2_ RTR  --- 98 message 68 [0 ffffffff 1 800] ------- [1:255 -1:255 32 0] 
s 128.333046296 _0_ RTR  --- 99 message 68 [0 0 0 0] ------- [0:255 -1:255 32 0] 
r 128.334454972 _2_ RTR  --- 99 message 68 [0 ffffffff 0 800] ------- [0:255 -1:255 32 0] 
s 129.399790745 _2_ RTR  --- 100 message 56 [0 0 0 0] ------- [2:255 -1:255 32 0] 
r 129.401283420 _0_ RTR  --- 100 message 56 [0 ffffffff 2 800] ------- [2:255 -1:255 32 0] 
r 129.401283432 _3_ RTR  --- 100 message 56 [0 ffffffff 2 800] ------- [2:255 -1:255 32 0] 
s 131.653063656 _4_ RTR  --- 101 message 32 [0 0 0 0] ------- [4:255 -1:255 32 0] 
s 137.284606473 _3_ RTR  --- 102 message 56 [0 0 0 0] ------- [3:255 -1:255 32 0] 
r 137.285619160 _2_ RTR  --- 102 message 56 [0 ffffffff 3 800] ------- [3:255 -1:255 32 0] 
s 138.770951749 _1_ RTR  --- 103 message 68 [0 0 0 0] ------- [1:255 -1:255 32 0] 
s 139.952241493 _0_ RTR  --- 104 message 68 [0 0 0 0] ------- [0:255 -1:255 32 0] 
r 139.953830169 _2_ RTR  --- 104 message 68 [0 ffffffff 0 800] ------- [0:255 -1:255 32 0] 
s 140.940480054 _2_ RTR  --- 105 message 56 [0 0 0 0] ------- [2:255 -1:255 32 0] 
r 140.941912729 _0_ RTR  --- 105 message 56 [0 ffffffff 2 800] ------- [2:255 -1:255 32 0] 
r 140.941912741 _3_ RTR  --- 105 message 56 [0 ffffffff 2 800] ------- [2:255 -1:255 32 0] 
s 143.185780036 _4_ RTR  --- 106 message 32 [0 0 0 0] ------- [4:255 -1:255 32 0] 
s 147.950545513 _1_ RTR  --- 107 message 32 [0 0 0 0] ------- [1:255 -1:255 32 0] 
